
                    DL_POLY Classic 1.9

                              Running on    1 nodes


 ************************************************************************************************************************
 ************************************************************************************************************************
 ************************************************************************************************************************
 ***************     DL_POLY CONTROL file                                                                 ***************
 ************************************************************************************************************************
 ************************************************************************************************************************
 ************************************************************************************************************************


 SIMULATION CONTROL PARAMETERS


 simulation temperature           2.9800E+02

 Nose-Hoover 
 thermostat relaxation time       1.0000E-01

 simulation timestep              5.0000E-14

 selected number of timesteps            1

 real space cut off               1.5000E+01

 real space cut off (vdw)         1.5000E+01

 border width of Verlet shell     5.0000E-01


 Electrostatics : Shifted Coulombic potential

 trajectory file option on  
 trajectory file start                   1
 trajectory file interval             1000
 trajectory file info key                0

 data printing interval                  1

 data stacking interval                  1

 statistics file interval                1

 user allocated job time (d)    ********

 job closure time        (s)    1000.000


SYSTEM SPECIFICATION

 energy units=kjoule/mol 


 number of molecular types               1

 molecular species type                  1


 name of species:             Unnamed002                              

 number of molecules                  6528

 number of atoms/sites                   1


 atomic characteristics:

                      site     name          mass        charge    repeat    freeze

                         1     Ar          39.94800     0.00000         1         0

 number of chemical bonds                0


 chemical bond details:

                            key     index     index                            parameters


 number of bond angles                   0


 bond angle details:

                            key     index     index     index     f-const       angle


 number of dihedral angles               0


 dihedral angle details:

                            key     index     index     index     index     f-const       angle        trig    1-4 elec     1-4 vdw



 number of specified pair potentials         1


                atom 1  atom 2      key                              parameters


                Ar      Ar        lj       7.74040E-01  3.44600E+00

 configuration file name: 

          Unnamed003                                                                      


 selected image convention               3


 simulation cell vectors


                       100.000000    0.000000    0.000000
                        50.000000   86.602540    0.000000
                        34.202014    0.304622   93.968768


 system volume            813793.404357    


 link cell algorithm in use


 total degrees of freedom                     19581.
 rotational degrees of freedom                    0.
 shell pseudo degrees of freedom                  0.


 sample of starting configuration

      i       x(i)        y(i)        z(i)       vx(i)       vy(i)       vz(i)       fx(i)       fy(i)       fz(i)


      1 -5.1543E+00 -1.5614E+01  3.4489E+00  5.0283E+00 -1.1165E+00 -2.5872E+00  7.2431E+00  8.8705E+01  3.3302E+00
    328  2.6164E+01  2.0401E+01  3.2248E+01  2.5735E+00  8.3608E-01 -1.8625E+00  5.0642E+01  2.4236E+01  3.7606E+01
    655 -3.2633E+01  1.8461E+01 -3.7177E+01 -1.6530E+00  6.9939E-01 -6.0968E+00 -4.4168E+02 -2.5420E+02  2.8271E+02
    982 -2.9598E+01  3.5728E+01 -2.9432E+01 -3.3467E+00 -4.3711E+00 -1.8216E+00  1.8958E+02  1.2688E+02  2.0679E+02
   1309  2.7998E+01  1.3390E+01 -4.1784E+01  1.5067E+00  1.6953E+00 -4.7717E+00  1.4820E+02 -1.5184E+02  2.1263E+01
   1636 -3.4778E+01 -3.1674E+01  2.2503E+01  2.1466E+00 -6.0556E-01 -2.1867E-01  5.8524E+01  2.0590E+02 -2.5649E+02
   1963  2.1791E+01  2.0012E+01  4.3630E+01 -2.1884E+00 -6.5785E-01  2.2848E-01  1.2243E+02  2.9575E+00 -4.9118E+00
   2290  6.2531E+01  1.6602E+01  2.3422E+01 -7.9616E-01 -1.3605E+00  2.3146E+00 -1.5609E+02  1.9017E+01 -8.1989E+01
   2617 -8.0576E+00  2.8746E+01  8.8623E+00  2.6001E+00  7.4578E+00  3.4155E-02 -3.3865E+01  7.0939E+01 -6.4606E+01
   2944  3.2228E+00 -3.8333E+01  4.1289E+01 -1.3596E+00 -9.6021E-01 -2.0665E+00 -3.8204E-01 -4.1655E+01 -9.7289E+01
   3271  1.7119E+01 -6.9180E+00  2.2160E+01  1.8667E+00  1.9483E+00 -1.7412E-01  1.1992E+03  1.8256E+03  1.4005E+02
   3598 -2.8467E+01  2.6058E+01 -9.2561E+00  5.4759E+00 -7.2959E-02  3.4652E-02  1.7526E+03 -6.9392E+02  4.6279E+02
   3925 -2.0287E+01 -9.5268E+00 -3.0691E+01  2.4206E-02 -3.5682E+00 -2.7355E+00  4.3733E+02 -2.1945E+01 -2.0382E+02
   4252 -2.4635E+01 -1.5253E+01 -2.9240E+01 -2.6963E+00 -4.5065E+00 -9.4226E-01  8.0888E+01 -2.6625E+01 -5.3967E+00
   4579  5.6879E+01  2.2128E+01 -1.4514E-01  2.1507E+00  9.0125E-01  1.4088E+00  3.8377E+01  1.4067E+02  4.4654E+01
   4906 -1.5318E+01 -3.1428E+01  2.5185E+01  2.2816E-02  2.4006E-01 -2.4011E+00 -8.6082E+01 -3.0358E+01  4.0129E+01
   5233  3.1351E+01  3.7620E+01  3.6157E+01  2.5575E+00 -7.8752E-01 -8.2660E-01 -4.2033E+02 -4.9619E+02  1.4727E+02
   5560 -1.2199E+01  3.0300E+00 -9.8970E-01  2.9398E+00 -6.1701E-01 -1.2418E+00 -3.9643E+01 -6.7954E+01 -2.1851E+02
   5887 -2.8722E+01 -9.4559E+00 -4.5027E+01  2.9817E+00  3.4129E+00 -2.0507E+00  8.7064E+00 -6.9719E+01 -8.3471E+01
   6214 -1.7220E+00 -1.6662E+01 -4.5168E+01  3.3744E+00 -1.8948E-01  1.1413E+00  5.2084E+01  3.1139E+02  4.4841E+01


long range correction for: vdw energy    -0.168470E+03
                         : vdw pressure  -0.678499E-02

 time elapsed since job start =           0.027 seconds

 ------------------------------------------------------------------------------------------------------------------------

     step     eng_tot    temp_tot     eng_cfg     eng_vdw     eng_cou     eng_bnd     eng_ang     eng_dih     eng_tet
 time          eng_pv    temp_rot     vir_cfg     vir_vdw     vir_cou     vir_bnd     vir_ang     vir_con     vir_tet
 cpu time      volume    temp_shl     eng_shl     vir_shl       alpha        beta       gamma     vir_pmf       press

 ------------------------------------------------------------------------------------------------------------------------
        1  1.4787E+04  2.9800E+02 -9.4708E+03 -9.4708E+03  0.0000E+00  0.0000E+00  0.0000E+00  0.0000E+00  0.0000E+00
   0.000f  3.4113E+04  0.0000E+00 -9.4594E+03 -9.4594E+03  0.0000E+00  0.0000E+00  0.0000E+00  0.0000E+00  0.0000E+00
   0.073s  8.1379E+05  0.0000E+00  0.0000E+00  0.0000E+00  8.0000E+01  7.0000E+01  6.0000E+01  0.0000E+00  3.8917E-01

  rolling  1.4787E+04  2.9800E+02 -9.4708E+03 -9.4708E+03  0.0000E+00  0.0000E+00  0.0000E+00  0.0000E+00  0.0000E+00
 averages  3.4113E+04  0.0000E+00 -9.4594E+03 -9.4594E+03  0.0000E+00  0.0000E+00  0.0000E+00  0.0000E+00  0.0000E+00
           8.1379E+05  0.0000E+00  0.0000E+00  0.0000E+00  8.0000E+01  7.0000E+01  6.0000E+01  0.0000E+00  3.8917E-01
 ------------------------------------------------------------------------------------------------------------------------


 run terminating. elapsed cpu time =   9.40000E-02, job time = *******d, close time = 1000.00s



 run terminated after       1 steps. final averages calculated over       1 steps.


 ------------------------------------------------------------------------------------------------------------------------

     step     eng_tot    temp_tot     eng_cfg     eng_vdw     eng_cou     eng_bnd     eng_ang     eng_dih     eng_tet
 time          eng_pv    temp_rot     vir_cfg     vir_vdw     vir_cou     vir_bnd     vir_ang     vir_con     vir_tet
 cpu time      volume    temp_shl     eng_shl     vir_shl       alpha        beta       gamma     vir_pmf       press

 ------------------------------------------------------------------------------------------------------------------------
        1  1.4787E+04  2.9800E+02 -9.4708E+03 -9.4708E+03  0.0000E+00  0.0000E+00  0.0000E+00  0.0000E+00  0.0000E+00
   0.000f  3.4113E+04  0.0000E+00 -9.4594E+03 -9.4594E+03  0.0000E+00  0.0000E+00  0.0000E+00  0.0000E+00  0.0000E+00
   0.140s  8.1379E+05  0.0000E+00  0.0000E+00  0.0000E+00  8.0000E+01  7.0000E+01  6.0000E+01  0.0000E+00  3.8917E-01

  r.m.s.   0.0000E+00  0.0000E+00  0.0000E+00  0.0000E+00  0.0000E+00  0.0000E+00  0.0000E+00  0.0000E+00  0.0000E+00
 fluctn.   0.0000E+00  0.0000E+00  0.0000E+00  0.0000E+00  0.0000E+00  0.0000E+00  0.0000E+00  0.0000E+00  0.0000E+00
           0.0000E+00  0.0000E+00  0.0000E+00  0.0000E+00  0.0000E+00  0.0000E+00  0.0000E+00  0.0000E+00  0.0000E+00
 ------------------------------------------------------------------------------------------------------------------------


            Approximate 3D Diffusion  coefficients (10^-9 m^2 / s)

            atom        D 
            Ar         0.0000E+00


                Average pressure tensor                                       r.m.s. fluctuations 

           3.9219E-01  3.4279E-04  1.0454E-03                          0.0000E+00  0.0000E+00  0.0000E+00
           3.4279E-04  3.7990E-01  8.0782E-03                          0.0000E+00  0.0000E+00  0.0000E+00
           1.0454E-03  8.0782E-03  3.9544E-01                          0.0000E+00  0.0000E+00  0.0000E+00

            trace/3.   3.8917E-01


 sample of final configuration

      i       x(i)        y(i)        z(i)       vx(i)       vy(i)       vz(i)       fx(i)       fy(i)       fz(i)


      1 -5.1543E+00 -1.5614E+01  3.4489E+00  5.0283E+00 -1.1165E+00 -2.5872E+00  5.6211E+00  8.9049E+01  3.7090E+00
    328  2.6164E+01  2.0401E+01  3.2248E+01  2.5735E+00  8.3608E-01 -1.8625E+00  5.0331E+01  2.2989E+01  3.6531E+01
    655 -3.2633E+01  1.8461E+01 -3.7177E+01 -1.6530E+00  6.9939E-01 -6.0968E+00 -4.4575E+02 -2.5498E+02  2.8659E+02
    982 -2.9598E+01  3.5728E+01 -2.9432E+01 -3.3467E+00 -4.3711E+00 -1.8216E+00  1.8887E+02  1.2431E+02  2.0547E+02
   1309  2.7998E+01  1.3390E+01 -4.1784E+01  1.5067E+00  1.6953E+00 -4.7717E+00  1.4937E+02 -1.5272E+02  2.0271E+01
   1636 -3.4778E+01 -3.1674E+01  2.2503E+01  2.1466E+00 -6.0556E-01 -2.1867E-01  5.8313E+01  2.0698E+02 -2.5822E+02
   1963  2.1791E+01  2.0012E+01  4.3630E+01 -2.1884E+00 -6.5785E-01  2.2848E-01  1.2054E+02  4.5068E+00 -5.1044E+00
   2290  6.2531E+01  1.6602E+01  2.3422E+01 -7.9616E-01 -1.3605E+00  2.3146E+00 -1.5725E+02  1.8972E+01 -8.2726E+01
   2617 -8.0576E+00  2.8746E+01  8.8623E+00  2.6001E+00  7.4578E+00  3.4155E-02 -3.4490E+01  7.1279E+01 -6.4864E+01
   2944  3.2228E+00 -3.8333E+01  4.1289E+01 -1.3596E+00 -9.6021E-01 -2.0665E+00  5.1950E-02 -4.2111E+01 -9.6700E+01
   3271  1.7119E+01 -6.9180E+00  2.2160E+01  1.8667E+00  1.9483E+00 -1.7412E-01  1.1857E+03  1.8131E+03  1.3980E+02
   3598 -2.8467E+01  2.6058E+01 -9.2561E+00  5.4759E+00 -7.2959E-02  3.4652E-02  1.7601E+03 -6.9846E+02  4.6109E+02
   3925 -2.0287E+01 -9.5268E+00 -3.0691E+01  2.4206E-02 -3.5682E+00 -2.7355E+00  4.4668E+02 -2.2138E+01 -2.0987E+02
   4252 -2.4635E+01 -1.5253E+01 -2.9240E+01 -2.6963E+00 -4.5065E+00 -9.4226E-01  8.0507E+01 -2.7756E+01 -7.0081E+00
   4579  5.6879E+01  2.2128E+01 -1.4514E-01  2.1507E+00  9.0125E-01  1.4088E+00  3.6451E+01  1.4196E+02  4.6283E+01
   4906 -1.5318E+01 -3.1428E+01  2.5185E+01  2.2816E-02  2.4006E-01 -2.4011E+00 -8.9143E+01 -3.0384E+01  3.9747E+01
   5233  3.1351E+01  3.7620E+01  3.6157E+01  2.5575E+00 -7.8752E-01 -8.2660E-01 -4.1741E+02 -4.9637E+02  1.4718E+02
   5560 -1.2199E+01  3.0300E+00 -9.8970E-01  2.9398E+00 -6.1701E-01 -1.2418E+00 -3.6860E+01 -6.6900E+01 -2.1254E+02
   5887 -2.8722E+01 -9.4559E+00 -4.5027E+01  2.9817E+00  3.4129E+00 -2.0507E+00  9.4351E+00 -6.8294E+01 -8.2110E+01
   6214 -1.7220E+00 -1.6662E+01 -4.5168E+01  3.3744E+00 -1.8948E-01  1.1413E+00  5.0707E+01  3.0721E+02  4.3642E+01

 time elapsed since job start =           0.141 seconds

